(C) 2022 by FIZ Karlsruhe - Leibniz Institute for Information Infrastructure.  All rights reserved.
data_91272-ICSD
_database_code_ICSD 91272
_audit_creation_date 2002-10-01
_chemical_name_common 'Distrontium nickel nitride'
_chemical_formula_structural 'Sr2 Ni N2'
_chemical_formula_sum 'N2 Ni1 Sr2'
_exptl_crystal_density_diffrn 4.11
_diffrn_ambient_temperature 291.
_citation_title 'An unusual metallic nitride: Sr2 Ni N2'
loop_
_citation_id
_citation_journal_full
_citation_year
_citation_journal_volume
_citation_page_first
_citation_page_last
_citation_journal_id_ASTM
primary 'Journal of Solid State Chemistry' 2000 154 542 550 JSSCBI
loop_
_citation_author_citation_id
_citation_author_name
primary 'Kowach, G.R.'
primary 'Brese, N.E.'
primary 'Bolle, U.M.'
primary 'Warren, C.J.'
primary 'DiSalvo, F.J.'
_cell_length_a 3.8874(3)
_cell_length_b 3.8874(3)
_cell_length_c 13.992(2)
_cell_angle_alpha 90.
_cell_angle_beta 90.
_cell_angle_gamma 90.
_cell_volume 211.45
_cell_formula_units_Z 2
_space_group_name_H-M_alt 'I 4/m m m'
_space_group_IT_number 139
loop_
_space_group_symop_id
_space_group_symop_operation_xyz
1 'y, x, -z'
2 '-y, -x, -z'
3 '-y, x, -z'
4 'y, -x, -z'
5 '-x, y, -z'
6 'x, -y, -z'
7 'x, y, -z'
8 '-x, -y, -z'
9 '-y, -x, z'
10 'y, x, z'
11 'y, -x, z'
12 '-y, x, z'
13 'x, -y, z'
14 '-x, y, z'
15 '-x, -y, z'
16 'x, y, z'
17 'y+1/2, x+1/2, -z+1/2'
18 '-y+1/2, -x+1/2, -z+1/2'
19 '-y+1/2, x+1/2, -z+1/2'
20 'y+1/2, -x+1/2, -z+1/2'
21 '-x+1/2, y+1/2, -z+1/2'
22 'x+1/2, -y+1/2, -z+1/2'
23 'x+1/2, y+1/2, -z+1/2'
24 '-x+1/2, -y+1/2, -z+1/2'
25 '-y+1/2, -x+1/2, z+1/2'
26 'y+1/2, x+1/2, z+1/2'
27 'y+1/2, -x+1/2, z+1/2'
28 '-y+1/2, x+1/2, z+1/2'
29 'x+1/2, -y+1/2, z+1/2'
30 '-x+1/2, y+1/2, z+1/2'
31 '-x+1/2, -y+1/2, z+1/2'
32 'x+1/2, y+1/2, z+1/2'
loop_
_atom_type_symbol
_atom_type_oxidation_number
Sr2+ 2
Ni2+ 2
N3- -3
loop_
_atom_site_label
_atom_site_type_symbol
_atom_site_symmetry_multiplicity
_atom_site_Wyckoff_symbol
_atom_site_fract_x
_atom_site_fract_y
_atom_site_fract_z
_atom_site_B_iso_or_equiv
_atom_site_occupancy
Sr1 Sr2+ 4 e 0 0 0.6474(2) . 1.
Ni1 Ni2+ 4 e 0 0 0.0277(3) . 0.5
N1 N3- 4 e 0 0 0.142(2) 1.2(3) 0.5
N2 N3- 4 e 0 0 0.176(2) 1.2(3) 0.5
loop_
_atom_site_aniso_label
_atom_site_aniso_type_symbol
_atom_site_aniso_U_11
_atom_site_aniso_U_22
_atom_site_aniso_U_33
_atom_site_aniso_U_12
_atom_site_aniso_U_13
_atom_site_aniso_U_23
Sr1 Sr2+ 0.0194(8) 0.0194(8) 0.046(2) 0 0 0
Ni1 Ni2+ 0.020(2) 0.020(2) 0.023(3) 0 0 0
#End of TTdata_91272-ICSD
#
