(C) 2022 by FIZ Karlsruhe - Leibniz Institute for Information Infrastructure.  All rights reserved.
data_74470-ICSD
_database_code_ICSD 74470
_audit_creation_date 1995-10-17
_audit_update_record 1997-11-10
_chemical_name_common 'Calcium cobalt magnesium catena-disilicate *'
_chemical_formula_structural 'Ca0.970 Co0.030 (Mg0.831 Co0.169) (Si2 O6)'
_chemical_formula_sum 'Ca0.97 Co0.199 Mg0.831 O6 Si2'
_chemical_name_structure_type Pyroxene#Diopside#CaMg(SiO3)2
_exptl_crystal_density_diffrn 3.37
_citation_title

;
Cobalt atoms at M(2) site in C2/c clinopyroxenes of the system CaMgSi2O6(Di) -
CaCoSi2O6 (CaCoPx)
;
loop_
_citation_id
_citation_journal_full
_citation_year
_citation_journal_volume
_citation_page_first
_citation_page_last
_citation_journal_id_ASTM
primary 'Mineralogical Journal' 1993 16 225 245 MJTOAS
loop_
_citation_author_citation_id
_citation_author_name
primary 'Tabira, Y.'
primary 'Ishizawa, N.'
primary 'Marumo, F.'
_cell_length_a 9.7527(10)
_cell_length_b 8.9261(8)
_cell_length_c 5.2486(7)
_cell_angle_alpha 90.
_cell_angle_beta 105.856(9)
_cell_angle_gamma 90.
_cell_volume 439.52
_cell_formula_units_Z 4
_space_group_name_H-M_alt 'C 1 2/c 1'
_space_group_IT_number 15
loop_
_space_group_symop_id
_space_group_symop_operation_xyz
1 'x, -y, z+1/2'
2 '-x, -y, -z'
3 '-x, y, -z+1/2'
4 'x, y, z'
5 'x+1/2, -y+1/2, z+1/2'
6 '-x+1/2, -y+1/2, -z'
7 '-x+1/2, y+1/2, -z+1/2'
8 'x+1/2, y+1/2, z'
loop_
_atom_type_symbol
_atom_type_oxidation_number
Ca2+ 2
Co2+ 2
Mg2+ 2
Co2+ 2
Si4+ 4
O2- -2
loop_
_atom_site_label
_atom_site_type_symbol
_atom_site_symmetry_multiplicity
_atom_site_Wyckoff_symbol
_atom_site_fract_x
_atom_site_fract_y
_atom_site_fract_z
_atom_site_B_iso_or_equiv
_atom_site_occupancy
Ca1 Ca2+ 4 e 0 0.30125(6) 0.25 . 0.97
Co1 Co2+ 4 e 0 0.262(3) 0.25 . 0.03
Mg1 Mg2+ 4 e 0 0.90804(9) 0.25 . 0.831
Co2 Co2+ 4 e 0 0.90804(9) 0.25 . 0.169
Si1 Si4+ 8 f 0.28663(2) 0.09317(2) 0.23036(4) . 1.
O1 O2- 8 f 0.11623(5) 0.08771(6) 0.14319(10) . 1.
O2 O2- 8 f 0.36124(6) 0.24952(6) 0.31988(11) . 1.
O3 O2- 8 f 0.35050(5) 0.01817(6) 0.99539(10) . 1.
loop_
_atom_site_aniso_label
_atom_site_aniso_type_symbol
_atom_site_aniso_U_11
_atom_site_aniso_U_22
_atom_site_aniso_U_33
_atom_site_aniso_U_12
_atom_site_aniso_U_13
_atom_site_aniso_U_23
Ca1 Ca2+ 0.0922(7) 0.0567(9) 0.0578(6) 0 -.0022(5) 0
Co1 Co2+ 0.162(21) 0.162(55) 0.102(20) 0 0.046(17) 0
Mg1 Mg2+ 0.0542(22) 0.0510(23) 0.0435(21) 0 0.0108(17) 0
Co2 Co2+ 0.0542(22) 0.0510(23) 0.0435(21) 0 0.0108(17) 0
Si1 Si4+ 0.0373(6) 0.0445(6) 0.0361(6) -.0024(4) 0.0114(5) -.0023(4)
O1 O2- 0.0151(11) 0.0464(14) 0.0271(12) 0.0006(11) 0.0027(11) 0.0019(11)
O2 O2- 0.0671(16) 0.0340(14) 0.0500(15) -.0261(12) 0.0121(13) -.0073(12)
O3 O2- 0.0318(13) 0.0627(15) 0.0230(13) 0.0001(11) 0.0092(11) -.0242(11)
#End of TTdata_74470-ICSD
#
