(C) 2022 by FIZ Karlsruhe - Leibniz Institute for Information Infrastructure.  All rights reserved.
data_6319-ICSD
_database_code_ICSD 6319
_audit_creation_date 2020-08-01
_chemical_name_common 'Zr, Br, Cs, Na-LTA zeolite'
_chemical_formula_structural 'Na4.43 Cs6.559 Zr0.091 Br0.54 (Si12 Al12 O48)'
_chemical_formula_sum 'Al12 Br0.54 Cs6.559 Na4.43 O48 Si12 Zr0.091'
_chemical_name_structure_type Zeolite-A-frame#Ag10(Al12Si12)O48(Br2)6
_exptl_crystal_density_diffrn 2.22
_diffrn_ambient_temperature 293.
_citation_title

;
Identification and structures of the X-ray induced luminescence centers in the
zeolites Zr,X,Cs,Na-LTA, X = Cl, Br, and I
;
loop_
_citation_id
_citation_journal_full
_citation_year
_citation_journal_volume
_citation_page_first
_citation_page_last
_citation_journal_id_ASTM
primary 'Microporous and Mesoporous Materials' 2019 278 443 454 MIMMFJ
loop_
_citation_author_citation_id
_citation_author_name
primary 'Kim, Joon Young'
primary 'Lim, Hyeon Seung'
primary 'Heo, Nam Ho'
primary 'Kim, Hong Joo'
primary 'Seff, Karl'
_cell_length_a 12.235(2)
_cell_length_b 12.235(2)
_cell_length_c 12.235(2)
_cell_angle_alpha 90.
_cell_angle_beta 90.
_cell_angle_gamma 90.
_cell_volume 1831.52
_cell_formula_units_Z 1
_space_group_name_H-M_alt 'P m -3 m'
_space_group_IT_number 221
loop_
_space_group_symop_id
_space_group_symop_operation_xyz
1 'z, y, -x'
2 'y, x, -z'
3 'x, z, -y'
4 'z, x, -y'
5 'y, z, -x'
6 'x, y, -z'
7 'z, -y, x'
8 'y, -x, z'
9 'x, -z, y'
10 'z, -x, y'
11 'y, -z, x'
12 'x, -y, z'
13 '-z, y, x'
14 '-y, x, z'
15 '-x, z, y'
16 '-z, x, y'
17 '-y, z, x'
18 '-x, y, z'
19 '-z, -y, -x'
20 '-y, -x, -z'
21 '-x, -z, -y'
22 '-z, -x, -y'
23 '-y, -z, -x'
24 '-x, -y, -z'
25 '-z, -y, x'
26 '-y, -x, z'
27 '-x, -z, y'
28 '-z, -x, y'
29 '-y, -z, x'
30 '-x, -y, z'
31 '-z, y, -x'
32 '-y, x, -z'
33 '-x, z, -y'
34 '-z, x, -y'
35 '-y, z, -x'
36 '-x, y, -z'
37 'z, -y, -x'
38 'y, -x, -z'
39 'x, -z, -y'
40 'z, -x, -y'
41 'y, -z, -x'
42 'x, -y, -z'
43 'z, y, x'
44 'y, x, z'
45 'x, z, y'
46 'z, x, y'
47 'y, z, x'
48 'x, y, z'
loop_
_atom_type_symbol
_atom_type_oxidation_number
Si4+ 4
Al3+ 3
O2- -2
Zr4+ 4
Cs1+ 1
Na1+ 1
Br1- -1
loop_
_atom_site_label
_atom_site_type_symbol
_atom_site_symmetry_multiplicity
_atom_site_Wyckoff_symbol
_atom_site_fract_x
_atom_site_fract_y
_atom_site_fract_z
_atom_site_B_iso_or_equiv
_atom_site_occupancy
Si1 Si4+ 24 k 0 0.18316(5) 0.37030(5) . 0.5
Al1 Al3+ 24 k 0 0.18316(5) 0.37030(5) . 0.5
O1 O2- 12 h 0 0.22163(35) 0.5 . 1.
O2 O2- 12 i 0 0.29682(20) 0.29682(20) . 1.
O3 O2- 24 m 0.11281(15) 0.11281(15) 0.33637(22) . 1.
Zr1 Zr4+ 1 b 0.5 0.5 0.5 . 0.091
Cs1 Cs1+ 3 c 0 0.5 0.5 . 1
Cs2 Cs1+ 8 g 0.08288(37) 0.08288(37) 0.08288(37) . 0.09738
Cs3 Cs1+ 8 g 0.26487(33) 0.26487(33) 0.26487(33) . 0.2575
Cs4 Cs1+ 8 g 0.28466(64) 0.28466(64) 0.28466(64) . 0.09
Na1 Na1+ 8 g 0.20410(24) 0.20410(24) 0.20410(24) . 0.55375
Br1 Br1- 6 f 0.29508(442) 0.5 0.5 . 0.09
loop_
_atom_site_aniso_label
_atom_site_aniso_type_symbol
_atom_site_aniso_U_11
_atom_site_aniso_U_22
_atom_site_aniso_U_33
_atom_site_aniso_U_12
_atom_site_aniso_U_13
_atom_site_aniso_U_23
Si1 Si4+ 0.0187(3) 0.0161(3) 0.0118(3) 0 0 0.0021(2)
Al1 Al3+ 0.0187(3) 0.0161(3) 0.0118(3) 0 0 0.0021(2)
O1 O2- 0.0503(19) 0.0500(20) 0.0170(11) 0 0 0
O2 O2- 0.0484(17) 0.0252(8) 0.0252(8) 0 0 0.0149(10)
O3 O2- 0.0319(6) 0.0319(6) 0.0397(11) 0.0097(8) 0.0025(7) 0.0025(7)
Zr1 Zr4+ 0.1356(235) 0.1356(235) 0.1356(235) 0 0 0
Cs1 Cs1+ 0.0806(8) 0.0627(4) 0.0627(4) 0 0 0
Cs2 Cs1+ 0.0965(37) 0.0965(37) 0.0965(37) -0.0250(23) -0.0250(23) -0.0250(23)
Cs3 Cs1+ 0.0325(8) 0.0325(8) 0.0325(8) 0.0076(7) 0.0076(7) 0.0076(7)
Cs4 Cs1+ 0.0419(19) 0.0419(19) 0.0419(19) -0.0072(17) -0.0072(17) -0.0072(17)
Na1 Na1+ 0.0315(9) 0.0315(9) 0.0315(9) 0.0136(11) 0.0136(11) 0.0136(11)
Br1 Br1- 0.1635(434) 0.4090(722) 0.4090(722) 0 0 0
#End of TTdata_6319-ICSD
#
