(C) 2022 by FIZ Karlsruhe - Leibniz Institute for Information Infrastructure.  All rights reserved.
data_173671-ICSD
_database_code_ICSD 173671
_audit_creation_date 2009-02-01
_chemical_name_common 'Rubidium chromium bis(sulfate)'
_chemical_formula_structural 'Rb Cr (S O4)2'
_chemical_formula_sum 'Cr1 O8 Rb1 S2'
_chemical_name_structure_type KAl(SO4)2(P3-)
_exptl_crystal_density_diffrn 3.3
_diffrn_ambient_temperature 298.
_citation_title

;
Structural disorder, octahedral coordination and two-dimensional
ferromagnetism im anhydrous alums
;
loop_
_citation_id
_citation_journal_full
_citation_year
_citation_journal_volume
_citation_page_first
_citation_page_last
_citation_journal_id_ASTM
primary 'Journal of Solid State Chemistry' 2008 181 2768 2775 JSSCBI
loop_
_citation_author_citation_id
_citation_author_name
primary 'West, D.V.'
primary 'Huang, Q.'
primary 'Zandbergen, H.W.'
primary 'McQueen, T.M.'
primary 'Cava, R.J.'
_cell_length_a 4.7850(1)
_cell_length_b 4.7850(1)
_cell_length_c 8.3685(1)
_cell_angle_alpha 90.
_cell_angle_beta 90.
_cell_angle_gamma 120.
_cell_volume 165.94
_cell_formula_units_Z 1
_space_group_name_H-M_alt 'P -3'
_space_group_IT_number 147
loop_
_space_group_symop_id
_space_group_symop_operation_xyz
1 'x-y, x, -z'
2 'y, -x+y, -z'
3 '-x, -y, -z'
4 '-x+y, -x, z'
5 '-y, x-y, z'
6 'x, y, z'
loop_
_atom_type_symbol
_atom_type_oxidation_number
Rb1+ 1
Cr3+ 3
S6+ 6
O2- -2
loop_
_atom_site_label
_atom_site_type_symbol
_atom_site_symmetry_multiplicity
_atom_site_Wyckoff_symbol
_atom_site_fract_x
_atom_site_fract_y
_atom_site_fract_z
_atom_site_B_iso_or_equiv
_atom_site_occupancy
Rb1 Rb1+ 1 a 0 0 0 1.82(2) 1.
Cr1 Cr3+ 1 b 0 0 0.5 0.88(3) 1.
S1 S6+ 2 d 0.3333 0.6667 0.2999(3) 0.91(3) 1.
O1 O2- 2 d 0.3333 0.6667 0.1274(2) 1.48(2) 1.
O2 O2- 6 g 0.0650(1) 0.7088(2) 0.3598(1) . 0.936(1)
O3 O2- 6 g -0.7088(2) -0.0650(1) 0.3598(1) . 0.064(1)
loop_
_atom_site_aniso_label
_atom_site_aniso_type_symbol
_atom_site_aniso_B_11
_atom_site_aniso_B_22
_atom_site_aniso_B_33
_atom_site_aniso_B_12
_atom_site_aniso_B_13
_atom_site_aniso_B_23
O2 O2- 0.94(2) 0.84(2) 1.75(2) 0 0 0
#End of TTdata_173671-ICSD
#
