(C) 2022 by FIZ Karlsruhe - Leibniz Institute for Information Infrastructure.  All rights reserved.
data_280085-ICSD
_database_code_ICSD 280085
_audit_creation_date 2000-07-15
_chemical_name_common 'Potassium iron silicate * - beta'
_chemical_formula_structural 'Fe0.97 K0.97 Si1.03 O4'
_chemical_formula_sum 'Fe0.97 K0.97 O4 Si1.03'
_chemical_name_structure_type BaAl2O4
_exptl_crystal_density_diffrn 2.91
_citation_title 'Hexagonal beta-K Fe Si O4'
loop_
_citation_id
_citation_journal_full
_citation_year
_citation_journal_volume
_citation_page_first
_citation_page_last
_citation_journal_id_ASTM
primary 'Acta Crystallographica, Section C: Crystal Structure Communications'
1999 55 2 2 ACSCEE
loop_
_citation_author_citation_id
_citation_author_name
primary 'Hammond, R.P.'
primary 'Barbier, J.'
_cell_length_a 5.2600(7)
_cell_length_b 5.2600(7)
_cell_length_c 8.801(2)
_cell_angle_alpha 90.
_cell_angle_beta 90.
_cell_angle_gamma 120.
_cell_volume 210.88
_cell_formula_units_Z 2
_space_group_name_H-M_alt 'P 63 2 2'
_space_group_IT_number 182
loop_
_space_group_symop_id
_space_group_symop_operation_xyz
1 'x, x-y, -z+1/2'
2 '-x+y, y, -z+1/2'
3 '-y, -x, -z+1/2'
4 'x-y, x, z+1/2'
5 'y, -x+y, z+1/2'
6 '-x, -y, z+1/2'
7 '-x, -x+y, -z'
8 'x-y, -y, -z'
9 'y, x, -z'
10 '-x+y, -x, z'
11 '-y, x-y, z'
12 'x, y, z'
loop_
_atom_type_symbol
_atom_type_oxidation_number
Fe3+ 3
Si4+ 4
K1+ 1
O2- -2
loop_
_atom_site_label
_atom_site_type_symbol
_atom_site_symmetry_multiplicity
_atom_site_Wyckoff_symbol
_atom_site_fract_x
_atom_site_fract_y
_atom_site_fract_z
_atom_site_B_iso_or_equiv
_atom_site_occupancy
Fe1 Fe3+ 4 f 0.6667 0.3333 0.05689(6) . 0.485
Si1 Si4+ 4 f 0.6667 0.3333 0.05689(6) . 0.515
K1 K1+ 2 b 0 0 0.25 . 0.97
O1 O2- 6 g 0 0.6180(5) 0 . 1.
O2 O2- 6 h 0.6014(19) 0.3007(10) 0.25 . 0.3333
loop_
_atom_site_aniso_label
_atom_site_aniso_type_symbol
_atom_site_aniso_U_11
_atom_site_aniso_U_22
_atom_site_aniso_U_33
_atom_site_aniso_U_12
_atom_site_aniso_U_13
_atom_site_aniso_U_23
Fe1 Fe3+ 0.0205(2) 0.0205(2) 0.0247(2) 0.01025(9) 0 0
Si1 Si4+ 0.0205(2) 0.0205(2) 0.0247(2) 0.01025(9) 0 0
K1 K1+ 0.0298(3) 0.0298(3) 0.0323(5) 0.01491(14) 0 0
O1 O2- 0.0392(12) 0.0352(10) 0.096(2) 0.0196(6) 0.001(2) 0.0007(9)
O2 O2- 0.030(4) 0.114(8) 0.033(2) 0.015(2) 0 -.01(4)
#End of TTdata_280085-ICSD
#
