(C) 2022 by FIZ Karlsruhe - Leibniz Institute for Information Infrastructure.  All rights reserved.
data_185333-ICSD
_database_code_ICSD 185333
_audit_creation_date 2013-02-01
_chemical_name_common 'Yttrium copper gallium (3/3.97/6.94)'
_chemical_formula_structural 'Y3 (Cu3.97 Ga6.94)'
_chemical_formula_sum 'Cu3.97 Ga6.94 Y3'
_chemical_name_structure_type Y3Cu4Ga7
_exptl_crystal_density_diffrn 6.91
_citation_title

;
Crystal structure of the phases of series Y1+x (Cu, Ga)4-x and Y3+x (Cu,
Ga)11-x
;
loop_
_citation_id
_citation_journal_full
_citation_year
_citation_journal_volume
_citation_page_first
_citation_page_last
_citation_journal_id_ASTM
primary 'Dopovidi Natsional'noi Akademii Nauk Ukraini' 2011 2011 118 125 DNAUFL
loop_
_citation_author_citation_id
_citation_author_name
primary 'Belyavina, N.M.'
primary 'Markiv, V.Ya.'
primary 'Timoshenko, M.V.'
primary 'Titov, Yu.A.'
primary 'Slobodyanik, M.S.'
_cell_length_a 12.354(3)
_cell_length_b 4.183(1)
_cell_length_c 9.326(3)
_cell_angle_alpha 90.
_cell_angle_beta 90.
_cell_angle_gamma 90.
_cell_volume 481.94
_cell_formula_units_Z 2
_space_group_name_H-M_alt 'I m m m'
_space_group_IT_number 71
loop_
_space_group_symop_id
_space_group_symop_operation_xyz
1 'x, y, -z'
2 'x, -y, z'
3 '-x, y, z'
4 '-x, -y, -z'
5 '-x, -y, z'
6 '-x, y, -z'
7 'x, -y, -z'
8 'x, y, z'
9 'x+1/2, y+1/2, -z+1/2'
10 'x+1/2, -y+1/2, z+1/2'
11 '-x+1/2, y+1/2, z+1/2'
12 '-x+1/2, -y+1/2, -z+1/2'
13 '-x+1/2, -y+1/2, z+1/2'
14 '-x+1/2, y+1/2, -z+1/2'
15 'x+1/2, -y+1/2, -z+1/2'
16 'x+1/2, y+1/2, z+1/2'
loop_
_atom_type_symbol
_atom_type_oxidation_number
Y0+ 0
Cu0+ 0
Ga0+ 0
Cu0+ 0
Ga0+ 0
Cu0+ 0
Ga0+ 0
Cu0+ 0
Ga0+ 0
loop_
_atom_site_label
_atom_site_type_symbol
_atom_site_symmetry_multiplicity
_atom_site_Wyckoff_symbol
_atom_site_fract_x
_atom_site_fract_y
_atom_site_fract_z
_atom_site_B_iso_or_equiv
_atom_site_occupancy
Y1 Y0+ 2 a 0 0 0 3.29(6) 1.00(1)
Y2 Y0+ 4 e 0.3043(4) 0 0 3.29(6) 1.00(1)
Cu1 Cu0+ 8 m 0.3479(5) 0 0.3629(6) 3.29(6) 0.364(4)
Ga1 Ga0+ 8 m 0.3479(5) 0 0.3629(6) 3.29(6) 0.636(7)
Cu2 Cu0+ 2 c 0.5 0.5 0 3.29(6) 0.331(4)
Ga2 Ga0+ 2 c 0.5 0.5 0 3.29(6) 0.579(7)
Cu3 Cu0+ 8 m 0.1396(5) 0 0.2795(5) 3.29(6) 0.364(4)
Ga3 Ga0+ 8 m 0.1396(5) 0 0.2795(5) 3.29(6) 0.636(7)
Cu4 Cu0+ 4 j 0 0.5 0.6924(9) 3.29(6) 0.364(4)
Ga4 Ga0+ 4 j 0 0.5 0.6924(9) 3.29(6) 0.636(7)
#End of TTdata_185333-ICSD
#
