(C) 2022 by FIZ Karlsruhe - Leibniz Institute for Information Infrastructure.  All rights reserved.
data_253699-ICSD
_database_code_ICSD 253699
_audit_creation_date 2018-02-01
_chemical_name_common 'Calcium europium gadolinium tungstate (0.4/0.1/0.3/1)'
_chemical_formula_structural '(Ca0.4 Eu0.1 Gd0.3) W O4'
_chemical_formula_sum 'Ca0.4 Eu0.1 Gd0.3 O4 W1'
_chemical_name_structure_type Scheelite#CaWO4
_exptl_crystal_density_diffrn 6.87
_diffrn_ambient_temperature 293.
_citation_title

;
Effect of cation vacancies on the crystal structure and luminescent properties
of Ca0.85-1.5xGdxEu0.1square 0.05+0.5xWO4 (0 <= x<=0.567) scheelite-based red
phosphors
;
loop_
_citation_id
_citation_journal_full
_citation_year
_citation_journal_volume
_citation_page_first
_citation_page_last
_citation_journal_id_ASTM
primary 'Journal of Alloys and Compounds' 2017 706 358 369 JALCEU
loop_
_citation_author_citation_id
_citation_author_name
primary 'Batuk, Dmitry'
primary 'Batuk, Maria'
primary 'Morozov, Vladimir A.'
primary 'Meert, Katrien W.'
primary 'Smet, Philippe F.'
primary 'Poelman, Dirk'
primary 'Abakumov, Artem M.'
primary 'Hadermann, Joke'
_cell_length_a 5.247000(10)
_cell_length_b 5.247000(10)
_cell_length_c 11.45514(3)
_cell_angle_alpha 90.
_cell_angle_beta 90.
_cell_angle_gamma 90.
_cell_volume 315.37
_cell_formula_units_Z 4
_space_group_name_H-M_alt 'I 41/a S'
_space_group_IT_number 88
loop_
_space_group_symop_id
_space_group_symop_operation_xyz
1 'y, -x+1/2, z+1/4'
2 '-y, x+1/2, z+1/4'
3 'y, -x, -z'
4 '-y, x, -z'
5 '-x, -y+1/2, -z+1/4'
6 'x, y+1/2, -z+1/4'
7 '-x, -y, z'
8 'x, y, z'
9 'y+1/2, -x, z+3/4'
10 '-y+1/2, x, z+3/4'
11 'y+1/2, -x+1/2, -z+1/2'
12 '-y+1/2, x+1/2, -z+1/2'
13 '-x+1/2, -y, -z+3/4'
14 'x+1/2, y, -z+3/4'
15 '-x+1/2, -y+1/2, z+1/2'
16 'x+1/2, y+1/2, z+1/2'
loop_
_atom_type_symbol
_atom_type_oxidation_number
Gd3+ 3
Eu3+ 3
Ca2+ 2
W6+ 6
O2- -2
loop_
_atom_site_label
_atom_site_type_symbol
_atom_site_symmetry_multiplicity
_atom_site_Wyckoff_symbol
_atom_site_fract_x
_atom_site_fract_y
_atom_site_fract_z
_atom_site_U_iso_or_equiv
_atom_site_occupancy
Gd1 Gd3+ 4 b 0 0 0.5 0.00771(15) 0.3
Eu1 Eu3+ 4 b 0 0 0.5 0.00771(15) 0.1
Ca1 Ca2+ 4 b 0 0 0.5 0.00771(15) 0.4
W1 W6+ 4 a 0 0 0 0.01073(7) 1
O1 O2- 16 f 0.2413(6) 0.1478(6) 0.0840(3) 0.0087(10) 1
#End of TTdata_253699-ICSD
#
