(C) 2022 by FIZ Karlsruhe - Leibniz Institute for Information Infrastructure.  All rights reserved.
data_153943-ICSD
_database_code_ICSD 153943
_audit_creation_date 2007-04-01
_chemical_name_common 'Zirconium titanium oxide (0.4/0.6/2)'
_chemical_formula_structural '(Zr0.4 Ti0.6) O2'
_chemical_formula_sum 'O2 Ti0.6 Zr0.4'
_chemical_name_structure_type α−PbO2#Fe2N.94
_exptl_crystal_density_diffrn 4.94
_citation_title

;
The crystal structure of disordered (Zr, Ti) O2 solid solution including
srilankite: evolution towards tetragonal Zr O2 with increasing Zr
;
loop_
_citation_id
_citation_journal_full
_citation_year
_citation_journal_volume
_citation_page_first
_citation_page_last
_citation_journal_id_ASTM
primary 'Physics and Chemistry of Minerals' 2005 32 504 514 PCMIDU
loop_
_citation_author_citation_id
_citation_author_name
primary 'Troitzsch, U.'
primary 'Christy, A.G.'
primary 'Ellis, D.J.'
_cell_length_a 4.7447(3)
_cell_length_b 5.4925(3)
_cell_length_c 5.0119(3)
_cell_angle_alpha 90.
_cell_angle_beta 90.
_cell_angle_gamma 90.
_cell_volume 130.61
_cell_formula_units_Z 4
_space_group_name_H-M_alt 'P b c n'
_space_group_IT_number 60
loop_
_space_group_symop_id
_space_group_symop_operation_xyz
1 'x, -y, z+1/2'
2 '-x+1/2, y+1/2, z'
3 'x+1/2, y+1/2, -z+1/2'
4 '-x, -y, -z'
5 '-x, y, -z+1/2'
6 'x+1/2, -y+1/2, -z'
7 '-x+1/2, -y+1/2, z+1/2'
8 'x, y, z'
loop_
_atom_type_symbol
_atom_type_oxidation_number
Zr4+ 4
Ti4+ 4
O2- -2
loop_
_atom_site_label
_atom_site_type_symbol
_atom_site_symmetry_multiplicity
_atom_site_Wyckoff_symbol
_atom_site_fract_x
_atom_site_fract_y
_atom_site_fract_z
_atom_site_B_iso_or_equiv
_atom_site_occupancy
Zr1 Zr4+ 4 c 0 0.1949(9) 0.25 0.8 0.4
Ti1 Ti4+ 4 c 0 0.1949(9) 0.25 0.8 0.6
O1 O2- 8 d 0.270(2) 0.393(2) 0.428(2) 0.5 1.
#End of TTdata_153943-ICSD
#
