(C) 2022 by FIZ Karlsruhe - Leibniz Institute for Information Infrastructure.  All rights reserved.
data_417840-ICSD
_database_code_ICSD 417840
_audit_creation_date 2008-08-01
_chemical_name_common 'Caesium molybdenum iodide selenide (3/6/12.78/1.22)'
_chemical_formula_structural 'Cs3 Mo6 I12.78 Se1.22'
_chemical_formula_sum 'Cs3 I12.78 Mo6 Se1.22'
_chemical_name_structure_type Cs3Mo6I2.5Se1.5
_exptl_crystal_density_diffrn 5.4
_citation_title

;
Unusual coexistence of magnetic and nonmagnetic Mo6 octahedral clusters in a
chalcohalide solid solution: Synthesis, x-ray diffraction, EPR, and DFT
investigations of Cs3 Mo6 I6 I(2-x) Se(x) I6
;
loop_
_citation_id
_citation_journal_full
_citation_year
_citation_journal_volume
_citation_page_first
_citation_page_last
_citation_journal_id_ASTM
primary 'Chemistry - A European Journal' 2007 13 9608 9616 CEUJED
loop_
_citation_author_citation_id
_citation_author_name
primary 'Kirakci, K.'
primary 'Cordier, S.'
primary 'Shames, A.'
primary 'Fontaine, B.'
primary 'Hernandez, O.'
primary 'Furet, E.'
primary 'Halet, J.F.'
primary 'Gautier, R.'
primary 'Perrin, C.'
_cell_length_a 16.7065(4)
_cell_length_b 16.7065(4)
_cell_length_c 20.5523(4)
_cell_angle_alpha 90
_cell_angle_beta 90
_cell_angle_gamma 120
_cell_volume 4967.78
_cell_formula_units_Z 6
_space_group_name_H-M_alt 'R -3 c H'
_space_group_IT_number 167
loop_
_space_group_symop_id
_space_group_symop_operation_xyz
1 'x-y, -y, -z+1/2'
2 '-x, -x+y, -z+1/2'
3 'y, x, -z+1/2'
4 'x-y, x, -z'
5 'y, -x+y, -z'
6 '-x, -y, -z'
7 '-x+y, y, z+1/2'
8 'x, x-y, z+1/2'
9 '-y, -x, z+1/2'
10 '-x+y, -x, z'
11 '-y, x-y, z'
12 'x, y, z'
13 'x-y+2/3, -y+1/3, -z+5/6'
14 '-x+2/3, -x+y+1/3, -z+5/6'
15 'y+2/3, x+1/3, -z+5/6'
16 'x-y+2/3, x+1/3, -z+1/3'
17 'y+2/3, -x+y+1/3, -z+1/3'
18 '-x+2/3, -y+1/3, -z+1/3'
19 '-x+y+2/3, y+1/3, z+5/6'
20 'x+2/3, x-y+1/3, z+5/6'
21 '-y+2/3, -x+1/3, z+5/6'
22 '-x+y+2/3, -x+1/3, z+1/3'
23 '-y+2/3, x-y+1/3, z+1/3'
24 'x+2/3, y+1/3, z+1/3'
25 'x-y+1/3, -y+2/3, -z+1/6'
26 '-x+1/3, -x+y+2/3, -z+1/6'
27 'y+1/3, x+2/3, -z+1/6'
28 'x-y+1/3, x+2/3, -z+2/3'
29 'y+1/3, -x+y+2/3, -z+2/3'
30 '-x+1/3, -y+2/3, -z+2/3'
31 '-x+y+1/3, y+2/3, z+1/6'
32 'x+1/3, x-y+2/3, z+1/6'
33 '-y+1/3, -x+2/3, z+1/6'
34 '-x+y+1/3, -x+2/3, z+2/3'
35 '-y+1/3, x-y+2/3, z+2/3'
36 'x+1/3, y+2/3, z+2/3'
loop_
_atom_type_symbol
_atom_type_oxidation_number
Mo2+ 2.03
Cs1+ 1
Se2- -2
I1- -1
loop_
_atom_site_label
_atom_site_type_symbol
_atom_site_symmetry_multiplicity
_atom_site_Wyckoff_symbol
_atom_site_fract_x
_atom_site_fract_y
_atom_site_fract_z
_atom_site_U_iso_or_equiv
_atom_site_occupancy
Mo1 Mo2+ 36 f 0.66992(2) 0.24321(2) 0.279200(15) 0.01971(7) 1
Cs1 Cs1+ 18 e 0.8512(15) 0.3333 0.0833 0.035(3) 0.17(4)
Cs2 Cs1+ 36 f 0.8622(7) 0.3255(13) 0.0802(11) 0.0559(18) 0.42(2)
Se1 Se2- 12 c 0.6667 0.3333 0.1810(3) 0.0217(7) 0.611(7)
I1 I1- 12 c 0.6667 0.3333 0.1675(3) 0.0250(9) 0.389(7)
I2 I1- 36 f 0.67397(2) 0.11618(2) 0.187962(15) 0.03940(9) 1
I3 I1- 36 f 0.67391(2) 0.143726(19) 0.386645(14) 0.03005(7) 1
loop_
_atom_site_aniso_label
_atom_site_aniso_type_symbol
_atom_site_aniso_U_11
_atom_site_aniso_U_22
_atom_site_aniso_U_33
_atom_site_aniso_U_12
_atom_site_aniso_U_13
_atom_site_aniso_U_23
Mo1 Mo2+ 0.02251(14) 0.01941(14) 0.01828(14) 0.01129(12) 0.00035(11)
-0.00040(11)
Cs1 Cs1+ 0.031(4) 0.051(5) 0.031(3) 0.026(2) 0.0026(13) 0.005(3)
Cs2 Cs1+ 0.0362(13) 0.083(5) 0.050(3) 0.0308(17) 0.0051(13) 0.018(3)
Se1 Se2- 0.0232(6) 0.0232(6) 0.019(2) 0.0116(3) 0 0
I1 I1- 0.0274(6) 0.0274(6) 0.020(2) 0.0137(3) 0 0
I2 I1- 0.0604(2) 0.03490(16) 0.03186(16) 0.03055(15) 0.00114(13) -0.00594(12)
I3 I1- 0.04379(16) 0.02686(13) 0.02621(14) 0.02269(12) -0.00089(11) 0.00182(10)
#End of TTdata_417840-ICSD
#
