(C) 2022 by FIZ Karlsruhe - Leibniz Institute for Information Infrastructure.  All rights reserved.
data_239274-ICSD
_database_code_ICSD 239274
_audit_creation_date 2016-08-01
_chemical_name_common
'Potassium tungstate(VI, V) tantalate(V) vanadate(V) - HTB-I'
_chemical_formula_structural 'K0.3 Ta0.125 V0.125 W0.75 O3'
_chemical_formula_sum 'K0.3 O3 Ta0.125 V0.125 W0.75'
_chemical_name_structure_type Bronze(hex)#HTB#K0.26WO3
_exptl_crystal_density_diffrn 6.38
_citation_title

;
Tantalum and vanadium substitution in hexagonal K0.3 W O3 bronze. Synthesis
and characterization
;
loop_
_citation_id
_citation_journal_full
_citation_year
_citation_journal_volume
_citation_page_first
_citation_page_last
_citation_journal_id_ASTM
primary 'Zeitschrift fuer Kristallographie - Crystalline Materials' 2016 231 11
21 ZKCMAJ
loop_
_citation_author_citation_id
_citation_author_name
primary 'Rahman, Md. Shahidur'
primary 'Murshed, M. Mangir'
primary 'Baabe, Dirk'
primary 'Gesing, Thorsten M.'
_cell_length_a 7.2825(7)
_cell_length_b 7.2825(7)
_cell_length_c 7.7020(7)
_cell_angle_alpha 90.
_cell_angle_beta 90.
_cell_angle_gamma 120.
_cell_volume 353.75
_cell_formula_units_Z 6
_space_group_name_H-M_alt 'P 63 2 2'
_space_group_IT_number 182
loop_
_space_group_symop_id
_space_group_symop_operation_xyz
1 'x, x-y, -z+1/2'
2 '-x+y, y, -z+1/2'
3 '-y, -x, -z+1/2'
4 'x-y, x, z+1/2'
5 'y, -x+y, z+1/2'
6 '-x, -y, z+1/2'
7 '-x, -x+y, -z'
8 'x-y, -y, -z'
9 'y, x, -z'
10 '-x+y, -x, z'
11 '-y, x-y, z'
12 'x, y, z'
loop_
_atom_type_symbol
_atom_type_oxidation_number
W5+ 5.93
Ta5+ 5
V5+ 5
O2- -2
K1+ 1
loop_
_atom_site_label
_atom_site_type_symbol
_atom_site_symmetry_multiplicity
_atom_site_Wyckoff_symbol
_atom_site_fract_x
_atom_site_fract_y
_atom_site_fract_z
_atom_site_B_iso_or_equiv
_atom_site_occupancy
W1 W5+ 6 g 0.4993(9) 0 0 . 0.75
Ta1 Ta5+ 6 g 0.4993(9) 0 0 . 0.125
V1 V5+ 6 g 0.4993(9) 0 0 . 0.125
O1 O2- 6 h 0.4901(28) 0.9802(28) 0.25 . 1.
O2 O2- 12 i 0.4323(11) 0.1884(23) 0.0419(12) . 1.
K1 K1+ 4 e 0 0 0.1920(15) . 0.45
#End of TTdata_239274-ICSD
#
